<PP_INFO>
Generated using BHS code
Author: BHS    Generation date: 1982
Info: See Bachelet-Hamann-Schlueter paper: PRB26, 4199 (1982)
    0        The Pseudo was generated with a Non-Relativistic Calculation
  0.00000000000E+00    Local Potential cutoff radius
nl pn  l   occ               Rcut            Rcut US             E pseu
3S  0  0  2.00      0.00000000000      0.00000000000      0.00000000000
3P  0  1  0.00      0.00000000000      0.00000000000      0.00000000000
</PP_INFO>


<PP_HEADER>
   0                   Version Number
  Mg                   Element
   NC                  Norm - Conserving pseudopotential
    F                  Nonlinear Core Correction
 SLA  PZ   NOGX NOGC   PZ   Exchange-Correlation functional
    2.00000000000      Z valence
    0.00000000000      Total energy
  0.0000000  0.0000000 Suggested cutoff for wfc and rho
    0                  Max angular momentum component
  425                  Number of points in mesh
    2    1             Number of Wavefunctions, Number of Projectors
 Wavefunctions         nl  l   occ
                       3S  0  2.00
                       3P  1  0.00
</PP_HEADER>


<PP_MESH>
  <PP_R>
  1.52630324073E-03  1.56494179122E-03  1.60455848128E-03  1.64517807262E-03
  1.68682595382E-03  1.72952815614E-03  1.77331136986E-03  1.81820296092E-03
  1.86423098801E-03  1.91142422016E-03  1.95981215467E-03  2.00942503557E-03
  2.06029387253E-03  2.11245046023E-03  2.16592739823E-03  2.22075811136E-03
  2.27697687061E-03  2.33461881452E-03  2.39371997119E-03  2.45431728076E-03
  2.51644861853E-03  2.58015281860E-03  2.64546969817E-03  2.71244008243E-03
  2.78110583003E-03  2.85150985931E-03  2.92369617507E-03  2.99770989612E-03
  3.07359728344E-03  3.15140576911E-03  3.23118398598E-03  3.31298179802E-03
  3.39685033153E-03  3.48284200708E-03  3.57101057225E-03  3.66141113528E-03
  3.75410019946E-03  3.84913569847E-03  3.94657703260E-03  4.04648510583E-03
  4.14892236399E-03  4.25395283368E-03  4.36164216237E-03  4.47205765939E-03
  4.58526833803E-03  4.70134495865E-03  4.82036007290E-03  4.94238806912E-03
  5.06750521877E-03  5.19578972414E-03  5.32732176723E-03  5.46218355984E-03
  5.60045939498E-03  5.74223569956E-03  5.88760108837E-03  6.03664641952E-03
  6.18946485119E-03  6.34615189988E-03  6.50680550010E-03  6.67152606556E-03
  6.84041655199E-03  7.01358252144E-03  7.19113220828E-03  7.37317658684E-03
  7.55982944078E-03  7.75120743422E-03  7.94743018463E-03  8.14862033761E-03
  8.35490364357E-03  8.56640903627E-03  8.78326871349E-03  9.00561821957E-03
  9.23359653019E-03  9.46734613923E-03  9.70701314779E-03  9.95274735556E-03
  1.02047023544E-02  1.04630356244E-02  1.07279086323E-02  1.09994869323E-02
  1.12779402697E-02  1.15634426869E-02  1.18561726322E-02  1.21563130714E-02
  1.24640516019E-02  1.27795805704E-02  1.31030971928E-02  1.34348036775E-02
  1.37749073518E-02  1.41236207916E-02  1.44811619542E-02  1.48477543144E-02
  1.52236270044E-02  1.56090149568E-02  1.60041590517E-02  1.64093062670E-02
  1.68247098329E-02  1.72506293901E-02  1.76873311522E-02  1.81350880721E-02
  1.85941800124E-02  1.90648939204E-02  1.95475240078E-02  2.00423719340E-02
  2.05497469951E-02  2.10699663171E-02  2.16033550538E-02  2.21502465907E-02
  2.27109827528E-02  2.32859140185E-02  2.38753997383E-02  2.44798083603E-02
  2.50995176594E-02  2.57349149740E-02  2.63863974483E-02  2.70543722799E-02
  2.77392569748E-02  2.84414796084E-02  2.91614790926E-02  2.98997054505E-02
  3.06566200976E-02  3.14326961303E-02  3.22284186212E-02  3.30442849229E-02
  3.38808049784E-02  3.47385016399E-02  3.56179109957E-02  3.65195827054E-02
  3.74440803431E-02  3.83919817499E-02  3.93638793951E-02  4.03603807463E-02
  4.13821086493E-02  4.24297017173E-02  4.35038147301E-02  4.46051190432E-02
  4.57343030078E-02  4.68920724006E-02  4.80791508650E-02  4.92962803639E-02
  5.05442216427E-02  5.18237547054E-02  5.31356793018E-02  5.44808154275E-02
  5.58600038363E-02  5.72741065659E-02  5.87240074766E-02  6.02106128035E-02
  6.17348517235E-02  6.32976769354E-02  6.49000652560E-02  6.65430182299E-02
  6.82275627565E-02  6.99547517308E-02  7.17256647021E-02  7.35414085487E-02
  7.54031181697E-02  7.73119571940E-02  7.92691187084E-02  8.12758260024E-02
  8.33333333333E-02  8.54429267104E-02  8.76059246980E-02  8.98236792404E-02
  9.20975765063E-02  9.44290377556E-02  9.68195202274E-02  9.92705180510E-02
  1.01783563180E-01  1.04360226349E-01  1.07002118057E-01  1.09710889572E-01
  1.12488233965E-01  1.15335887165E-01  1.18255629049E-01  1.21249284552E-01
  1.24318724803E-01  1.27465868305E-01  1.30692682124E-01  1.34001183124E-01
  1.37393439225E-01  1.40871570698E-01  1.44437751489E-01  1.48094210576E-01
  1.51843233366E-01  1.55687163119E-01  1.59628402418E-01  1.63669414664E-01
  1.67812725623E-01  1.72060924997E-01  1.76416668051E-01  1.80882677265E-01
  1.85461744041E-01  1.90156730444E-01  1.94970570994E-01  1.99906274497E-01
  2.04966925930E-01  2.10155688363E-01  2.15475804943E-01  2.20930600915E-01
  2.26523485705E-01  2.32257955047E-01  2.38137593172E-01  2.44166075044E-01
  2.50347168662E-01  2.56684737410E-01  2.63182742474E-01  2.69845245320E-01
  2.76676410228E-01  2.83680506899E-01  2.90861913122E-01  2.98225117508E-01
  3.05774722302E-01  3.13515446250E-01  3.21452127558E-01  3.29589726910E-01
  3.37933330570E-01  3.46488153563E-01  3.55259542931E-01  3.64252981077E-01
  3.73474089195E-01  3.82928630776E-01  3.92622515216E-01  4.02561801509E-01
  4.12752702033E-01  4.23201586432E-01  4.33914985598E-01  4.44899595756E-01
  4.56162282644E-01  4.67710085808E-01  4.79550223000E-01  4.91690094693E-01
  5.04137288701E-01  5.16899584925E-01  5.29984960217E-01  5.43401593361E-01
  5.57157870190E-01  5.71262388825E-01  5.85723965049E-01  6.00551637818E-01
  6.15754674911E-01  6.31342578720E-01  6.47325092192E-01  6.63712204920E-01
  6.80514159381E-01  6.97741457344E-01  7.15404866431E-01  7.33515426849E-01
  7.52084458286E-01  7.71123566992E-01  7.90644653030E-01  8.10659917713E-01
  8.31181871235E-01  8.52223340483E-01  8.73797477061E-01  8.95917765506E-01
  9.18598031720E-01  9.41852451607E-01  9.65695559935E-01  9.90142259425E-01
  1.01520783006E+00  1.04090793863E+00  1.06725864856E+00  1.09427642987E+00
  1.12197816958E+00  1.15038118217E+00  1.17950322045E+00  1.20936248663E+00
  1.23997764374E+00  1.27136782724E+00  1.30355265702E+00  1.33655224964E+00
  1.37038723092E+00  1.40507874884E+00  1.44064848671E+00  1.47711867679E+00
  1.51451211412E+00  1.55285217082E+00  1.59216281069E+00  1.63246860413E+00
  1.67379474360E+00  1.71616705927E+00  1.75961203521E+00  1.80415682596E+00
  1.84982927345E+00  1.89665792446E+00  1.94467204841E+00  1.99390165570E+00
  2.04437751643E+00  2.09613117965E+00  2.14919499310E+00  2.20360212338E+00
  2.25938657672E+00  2.31658322022E+00  2.37522780365E+00  2.43535698177E+00
  2.49700833728E+00  2.56022040429E+00  2.62503269240E+00  2.69148571138E+00
  2.75962099656E+00  2.82948113469E+00  2.90110979063E+00  2.97455173464E+00
  3.04985287031E+00  3.12706026330E+00  3.20622217075E+00  3.28738807143E+00
  3.37060869667E+00  3.45593606207E+00  3.54342350001E+00  3.63312569298E+00
  3.72509870778E+00  3.81940003053E+00  3.91608860263E+00  4.01522485759E+00
  4.11687075879E+00  4.22108983824E+00  4.32794723624E+00  4.43750974214E+00
  4.54984583610E+00  4.66502573180E+00  4.78312142045E+00  4.90420671570E+00
  5.02835729978E+00  5.15565077086E+00  5.28616669151E+00  5.41998663842E+00
  5.55719425341E+00  5.69787529571E+00  5.84211769556E+00  5.99001160914E+00
  6.14164947497E+00  6.29712607164E+00  6.45653857711E+00  6.61998662936E+00
  6.78757238875E+00  6.95940060184E+00  7.13557866685E+00  7.31621670081E+00
  7.50142760838E+00  7.69132715239E+00  7.88603402624E+00  8.08566992808E+00
  8.29035963683E+00  8.50023109022E+00  8.71541546476E+00  8.93604725767E+00
  9.16226437101E+00  9.39420819784E+00  9.63202371060E+00  9.87585955173E+00
  1.01258681266E+01  1.03822056986E+01  1.06450324872E+01  1.09145127676E+01
  1.11908149737E+01  1.14741118036E+01  1.17645803268E+01  1.20624020957E+01
  1.23677632585E+01  1.26808546761E+01  1.30018720405E+01  1.33310159983E+01
  1.36684922750E+01  1.40145118043E+01  1.43692908597E+01  1.47330511897E+01
  1.51060201563E+01  1.54884308772E+01  1.58805223716E+01  1.62825397094E+01
  1.66947341646E+01  1.71173633721E+01  1.75506914889E+01  1.79949893592E+01
  1.84505346837E+01  1.89176121929E+01  1.93965138256E+01  1.98875389109E+01
  2.03909943554E+01  2.09071948351E+01  2.14364629921E+01  2.19791296364E+01
  2.25355339522E+01  2.31060237103E+01  2.36909554853E+01  2.42906948788E+01
  2.49056167473E+01  2.55361054369E+01  2.61825550238E+01  2.68453695599E+01
  2.75249633258E+01  2.82217610898E+01  2.89361983732E+01  2.96687217226E+01
  3.04197889888E+01  3.11898696134E+01  3.19794449218E+01  3.27890084243E+01
  3.36190661244E+01  3.44701368353E+01  3.53427525037E+01  3.62374585430E+01
  3.71548141735E+01  3.80953927724E+01  3.90597822319E+01  4.00485853267E+01
  4.10624200911E+01  4.21019202047E+01  4.31677353890E+01  4.42605318132E+01
  4.53809925105E+01  4.65298178054E+01  4.77077257511E+01  4.89154525785E+01
  5.01537531560E+01  5.14234014619E+01  5.27251910677E+01  5.40599356342E+01
  5.54284694204E+01  5.68316478042E+01  5.82703478180E+01  5.97454686960E+01
  6.12579324368E+01
  </PP_R>
  <PP_RAB>
  3.81575810182E-05  3.91235447806E-05  4.01139620321E-05  4.11294518156E-05
  4.21706488454E-05  4.32382039035E-05  4.43327842466E-05  4.54550740230E-05
  4.66057747003E-05  4.77856055040E-05  4.89953038667E-05  5.02356258892E-05
  5.15073468132E-05  5.28112615057E-05  5.41481849557E-05  5.55189527841E-05
  5.69244217652E-05  5.83654703630E-05  5.98429992797E-05  6.13579320190E-05
  6.29112154632E-05  6.45038204650E-05  6.61367424543E-05  6.78110020606E-05
  6.95276457507E-05  7.12877464826E-05  7.30924043768E-05  7.49427474030E-05
  7.68399320859E-05  7.87851442278E-05  8.07795996494E-05  8.28245449505E-05
  8.49212582883E-05  8.70710501769E-05  8.92752643063E-05  9.15352783821E-05
  9.38525049866E-05  9.62283924618E-05  9.86644258149E-05  1.01162127646E-04
  1.03723059100E-04  1.06348820842E-04  1.09041054059E-04  1.11801441485E-04
  1.14631708451E-04  1.17533623966E-04  1.20509001823E-04  1.23559701728E-04
  1.26687630469E-04  1.29894743103E-04  1.33183044181E-04  1.36554588996E-04
  1.40011484874E-04  1.43555892489E-04  1.47190027209E-04  1.50916160488E-04
  1.54736621280E-04  1.58653797497E-04  1.62670137502E-04  1.66788151639E-04
  1.71010413800E-04  1.75339563036E-04  1.79778305207E-04  1.84329414671E-04
  1.88995736020E-04  1.93780185856E-04  1.98685754616E-04  2.03715508440E-04
  2.08872591089E-04  2.14160225907E-04  2.19581717837E-04  2.25140455489E-04
  2.30839913255E-04  2.36683653481E-04  2.42675328695E-04  2.48818683889E-04
  2.55117558860E-04  2.61575890611E-04  2.68197715808E-04  2.74987173308E-04
  2.81948506743E-04  2.89086067173E-04  2.96404315805E-04  3.03907826784E-04
  3.11601290047E-04  3.19489514260E-04  3.27577429820E-04  3.35870091937E-04
  3.44372683795E-04  3.53090519791E-04  3.62029048855E-04  3.71193857860E-04
  3.80590675110E-04  3.90225373921E-04  4.00103976293E-04  4.10232656675E-04
  4.20617745822E-04  4.31265734752E-04  4.42183278806E-04  4.53377201803E-04
  4.64854500309E-04  4.76622348011E-04  4.88688100195E-04  5.01059298351E-04
  5.13743674878E-04  5.26749157927E-04  5.40083876346E-04  5.53756164769E-04
  5.67774568821E-04  5.82147850461E-04  5.96884993459E-04  6.11995209007E-04
  6.27487941484E-04  6.43372874350E-04  6.59659936206E-04  6.76359306997E-04
  6.93481424371E-04  7.11036990210E-04  7.29036977315E-04  7.47492636262E-04
  7.66415502441E-04  7.85817403257E-04  8.05710465530E-04  8.26107123073E-04
  8.47020124460E-04  8.68462540997E-04  8.90447774893E-04  9.12989567635E-04
  9.36102008578E-04  9.59799543748E-04  9.84096984877E-04  1.00900951866E-03
  1.03455271623E-03  1.06074254293E-03  1.08759536825E-03  1.11512797608E-03
  1.14335757520E-03  1.17230181001E-03  1.20197877163E-03  1.23240700910E-03
  1.26360554107E-03  1.29559386764E-03  1.32839198255E-03  1.36202038569E-03
  1.39650009591E-03  1.43185266415E-03  1.46810018691E-03  1.50526532009E-03
  1.54337129309E-03  1.58244192339E-03  1.62250163140E-03  1.66357545575E-03
  1.70568906891E-03  1.74886879327E-03  1.79314161755E-03  1.83853521372E-03
  1.88507795424E-03  1.93279892985E-03  1.98172796771E-03  2.03189565006E-03
  2.08333333333E-03  2.13607316776E-03  2.19014811745E-03  2.24559198101E-03
  2.30243941266E-03  2.36072594389E-03  2.42048800568E-03  2.48176295128E-03
  2.54458907950E-03  2.60900565873E-03  2.67505295143E-03  2.74277223931E-03
  2.81220584912E-03  2.88339717913E-03  2.95639072624E-03  3.03123211379E-03
  3.10796812009E-03  3.18664670763E-03  3.26731705310E-03  3.35002957810E-03
  3.43483598063E-03  3.52178926746E-03  3.61094378722E-03  3.70235526440E-03
  3.79608083415E-03  3.89217907798E-03  3.99071006045E-03  4.09173536660E-03
  4.19531814056E-03  4.30152312493E-03  4.41041670128E-03  4.52206693163E-03
  4.63654360103E-03  4.75391826110E-03  4.87426427485E-03  4.99765686243E-03
  5.12417314824E-03  5.25389220908E-03  5.38689512357E-03  5.52326502288E-03
  5.66308714262E-03  5.80644887618E-03  5.95343982930E-03  6.10415187611E-03
  6.25867921656E-03  6.41711843525E-03  6.57956856185E-03  6.74613113300E-03
  6.91691025570E-03  7.09201267248E-03  7.27154782805E-03  7.45562793771E-03
  7.64436805754E-03  7.83788615625E-03  8.03630318895E-03  8.23974317275E-03
  8.44833326426E-03  8.66220383908E-03  8.88148857327E-03  9.10632452694E-03
  9.33685222987E-03  9.57321576939E-03  9.81556288040E-03  1.00640450377E-02
  1.03188175508E-02  1.05800396608E-02  1.08478746400E-02  1.11224898939E-02
  1.14040570661E-02  1.16927521452E-02  1.19887555750E-02  1.22922523673E-02
  1.26034322175E-02  1.29224896231E-02  1.32496240054E-02  1.35850398340E-02
  1.39289467547E-02  1.42815597206E-02  1.46430991262E-02  1.50137909455E-02
  1.53938668728E-02  1.57835644680E-02  1.61831273048E-02  1.65928051230E-02
  1.70128539845E-02  1.74435364336E-02  1.78851216608E-02  1.83378856712E-02
  1.88021114572E-02  1.92780891748E-02  1.97661163257E-02  2.02664979428E-02
  2.07795467809E-02  2.13055835121E-02  2.18449369265E-02  2.23979441377E-02
  2.29649507930E-02  2.35463112902E-02  2.41423889984E-02  2.47535564856E-02
  2.53801957515E-02  2.60226984658E-02  2.66814662139E-02  2.73569107469E-02
  2.80494542396E-02  2.87595295543E-02  2.94875805112E-02  3.02340621658E-02
  3.09994410935E-02  3.17841956810E-02  3.25888164254E-02  3.34138062409E-02
  3.42596807731E-02  3.51269687210E-02  3.60162121678E-02  3.69279669197E-02
  3.78628028530E-02  3.88213042706E-02  3.98040702671E-02  4.08117151033E-02
  4.18448685900E-02  4.29041764817E-02  4.39903008803E-02  4.51039206490E-02
  4.62457318363E-02  4.74164481115E-02  4.86168012103E-02  4.98475413924E-02
  5.11094379106E-02  5.24032794913E-02  5.37298748275E-02  5.50900530845E-02
  5.64846644180E-02  5.79145805056E-02  5.93806950912E-02  6.08839245442E-02
  6.24252084321E-02  6.40055101073E-02  6.56258173099E-02  6.72871427846E-02
  6.89905249139E-02  7.07370283672E-02  7.25277447658E-02  7.43637933659E-02
  7.62463217577E-02  7.81765065825E-02  8.01555542688E-02  8.21847017858E-02
  8.42652174168E-02  8.63984015517E-02  8.85855875001E-02  9.08281423244E-02
  9.31274676944E-02  9.54850007632E-02  9.79022150658E-02  1.00380621440E-01
  1.02921768970E-01  1.05527245956E-01  1.08198680906E-01  1.10937743554E-01
  1.13746145902E-01  1.16625643295E-01  1.19578035511E-01  1.22605167892E-01
  1.25708932495E-01  1.28891269272E-01  1.32154167288E-01  1.35499665960E-01
  1.38929856335E-01  1.42446882393E-01  1.46052942389E-01  1.49750290228E-01
  1.53541236874E-01  1.57428151791E-01  1.61413464428E-01  1.65499665734E-01
  1.69689309719E-01  1.73985015046E-01  1.78389466671E-01  1.82905417520E-01
  1.87535690209E-01  1.92283178810E-01  1.97150850656E-01  2.02141748202E-01
  2.07258990921E-01  2.12505777256E-01  2.17885386619E-01  2.23401181442E-01
  2.29056609275E-01  2.34855204946E-01  2.40800592765E-01  2.46896488793E-01
  2.53146703164E-01  2.59555142465E-01  2.66125812179E-01  2.72862819189E-01
  2.79770374344E-01  2.86852795089E-01  2.94114508170E-01  3.01560052392E-01
  3.09194081464E-01  3.17021366901E-01  3.25046801013E-01  3.33275399957E-01
  3.41712306875E-01  3.50362795108E-01  3.59232271493E-01  3.68326279743E-01
  3.77650503907E-01  3.87210771929E-01  3.97013059289E-01  4.07063492734E-01
  4.17368354114E-01  4.27934084302E-01  4.38767287222E-01  4.49874733980E-01
  4.61263367092E-01  4.72940304823E-01  4.84912845641E-01  4.97188472772E-01
  5.09774858884E-01  5.22679870877E-01  5.35911574804E-01  5.49478240910E-01
  5.63388348804E-01  5.77650592757E-01  5.92273887133E-01  6.07267371969E-01
  6.22640418681E-01  6.38402635924E-01  6.54563875595E-01  6.71134238997E-01
  6.88124083145E-01  7.05544027246E-01  7.23404959331E-01  7.41718043064E-01
  7.60494724719E-01  7.79746740334E-01  7.99486123044E-01  8.19725210606E-01
  8.40476653110E-01  8.61753420881E-01  8.83568812593E-01  9.05936463576E-01
  9.28870354339E-01  9.52384819310E-01  9.76494555797E-01  1.00121463317E+00
  1.02656050228E+00  1.05254800512E+00  1.07919338473E+00  1.10651329533E+00
  1.13452481276E+00  1.16324544514E+00  1.19269314378E+00  1.22288631446E+00
  1.25384382890E+00  1.28558503655E+00  1.31812977669E+00  1.35149839086E+00
  1.38571173551E+00  1.42079119511E+00  1.45675869545E+00  1.49363671740E+00
  1.53144831092E+00
  </PP_RAB>
</PP_MESH>


<PP_LOCAL>
 -1.75981408371E+00 -1.75981414086E+00 -1.75981420095E+00 -1.75981426411E+00
 -1.75981433051E+00 -1.75981440032E+00 -1.75981447370E+00 -1.75981455085E+00
 -1.75981463195E+00 -1.75981471721E+00 -1.75981480684E+00 -1.75981490107E+00
 -1.75981500013E+00 -1.75981510427E+00 -1.75981521374E+00 -1.75981532883E+00
 -1.75981544983E+00 -1.75981557702E+00 -1.75981571073E+00 -1.75981585130E+00
 -1.75981599908E+00 -1.75981615444E+00 -1.75981631776E+00 -1.75981648945E+00
 -1.75981666994E+00 -1.75981685969E+00 -1.75981705917E+00 -1.75981726888E+00
 -1.75981748933E+00 -1.75981772109E+00 -1.75981796473E+00 -1.75981822087E+00
 -1.75981849013E+00 -1.75981877320E+00 -1.75981907078E+00 -1.75981938362E+00
 -1.75981971250E+00 -1.75982005824E+00 -1.75982042171E+00 -1.75982080381E+00
 -1.75982120550E+00 -1.75982162778E+00 -1.75982207172E+00 -1.75982253841E+00
 -1.75982302903E+00 -1.75982354481E+00 -1.75982408702E+00 -1.75982465704E+00
 -1.75982525628E+00 -1.75982588624E+00 -1.75982654850E+00 -1.75982724471E+00
 -1.75982797661E+00 -1.75982874603E+00 -1.75982955490E+00 -1.75983040524E+00
 -1.75983129917E+00 -1.75983223893E+00 -1.75983322687E+00 -1.75983426545E+00
 -1.75983535728E+00 -1.75983650507E+00 -1.75983771171E+00 -1.75983898021E+00
 -1.75984031374E+00 -1.75984171562E+00 -1.75984318938E+00 -1.75984473868E+00
 -1.75984636740E+00 -1.75984807961E+00 -1.75984987959E+00 -1.75985177184E+00
 -1.75985376109E+00 -1.75985585230E+00 -1.75985805071E+00 -1.75986036180E+00
 -1.75986279136E+00 -1.75986534545E+00 -1.75986803045E+00 -1.75987085307E+00
 -1.75987382037E+00 -1.75987693975E+00 -1.75988021901E+00 -1.75988366634E+00
 -1.75988729035E+00 -1.75989110009E+00 -1.75989510507E+00 -1.75989931530E+00
 -1.75990374130E+00 -1.75990839410E+00 -1.75991328534E+00 -1.75991842721E+00
 -1.75992383257E+00 -1.75992951489E+00 -1.75993548836E+00 -1.75994176790E+00
 -1.75994836916E+00 -1.75995530863E+00 -1.75996260361E+00 -1.75997027231E+00
 -1.75997833385E+00 -1.75998680834E+00 -1.75999571691E+00 -1.76000508177E+00
 -1.76001492627E+00 -1.76002527496E+00 -1.76003615361E+00 -1.76004758933E+00
 -1.76005961063E+00 -1.76007224743E+00 -1.76008553121E+00 -1.76009949505E+00
 -1.76011417370E+00 -1.76012960369E+00 -1.76014582342E+00 -1.76016287323E+00
 -1.76018079553E+00 -1.76019963486E+00 -1.76021943805E+00 -1.76024025431E+00
 -1.76026213533E+00 -1.76028513545E+00 -1.76030931174E+00 -1.76033472420E+00
 -1.76036143585E+00 -1.76038951291E+00 -1.76041902494E+00 -1.76045004505E+00
 -1.76048265003E+00 -1.76051692054E+00 -1.76055294135E+00 -1.76059080146E+00
 -1.76063059441E+00 -1.76067241841E+00 -1.76071637665E+00 -1.76076257748E+00
 -1.76081113471E+00 -1.76086216786E+00 -1.76091580245E+00 -1.76097217027E+00
 -1.76103140970E+00 -1.76109366607E+00 -1.76115909190E+00 -1.76122784737E+00
 -1.76130010057E+00 -1.76137602799E+00 -1.76145581482E+00 -1.76153965546E+00
 -1.76162775389E+00 -1.76172032413E+00 -1.76181759077E+00 -1.76191978939E+00
 -1.76202716712E+00 -1.76213998318E+00 -1.76225850940E+00 -1.76238303084E+00
 -1.76251384636E+00 -1.76265126928E+00 -1.76279562799E+00 -1.76294726666E+00
 -1.76310654592E+00 -1.76327384359E+00 -1.76344955543E+00 -1.76363409589E+00
 -1.76382789894E+00 -1.76403141888E+00 -1.76424513119E+00 -1.76446953339E+00
 -1.76470514594E+00 -1.76495251318E+00 -1.76521220423E+00 -1.76548481399E+00
 -1.76577096408E+00 -1.76607130387E+00 -1.76638651146E+00 -1.76671729472E+00
 -1.76706439231E+00 -1.76742857475E+00 -1.76781064540E+00 -1.76821144153E+00
 -1.76863183536E+00 -1.76907273506E+00 -1.76953508571E+00 -1.77001987034E+00
 -1.77052811081E+00 -1.77106086869E+00 -1.77161924614E+00 -1.77220438666E+00
 -1.77281747579E+00 -1.77345974171E+00 -1.77413245576E+00 -1.77483693284E+00
 -1.77557453167E+00 -1.77634665490E+00 -1.77715474907E+00 -1.77800030434E+00
 -1.77888485412E+00 -1.77980997434E+00 -1.78077728256E+00 -1.78178843679E+00
 -1.78284513400E+00 -1.78394910835E+00 -1.78510212902E+00 -1.78630599774E+00
 -1.78756254586E+00 -1.78887363111E+00 -1.79024113382E+00 -1.79166695277E+00
 -1.79315300052E+00 -1.79470119835E+00 -1.79631347058E+00 -1.79799173855E+00
 -1.79973791402E+00 -1.80155389217E+00 -1.80344154406E+00 -1.80540270879E+00
 -1.80743918520E+00 -1.80955272331E+00 -1.81174501543E+00 -1.81401768719E+00
 -1.81637228846E+00 -1.81881028430E+00 -1.82133304611E+00 -1.82394184308E+00
 -1.82663783413E+00 -1.82942206048E+00 -1.83229543907E+00 -1.83525875691E+00
 -1.83831266670E+00 -1.84145768373E+00 -1.84469418423E+00 -1.84802240541E+00
 -1.85144244698E+00 -1.85495427440E+00 -1.85855772352E+00 -1.86225250656E+00
 -1.86603821889E+00 -1.86991434611E+00 -1.87388027070E+00 -1.87793527713E+00
 -1.88207855424E+00 -1.88630919315E+00 -1.89062617891E+00 -1.89502837347E+00
 -1.89951448744E+00 -1.90408303754E+00 -1.90873228654E+00 -1.91346016205E+00
 -1.91826415043E+00 -1.92314116209E+00 -1.92808736460E+00 -1.93309798014E+00
 -1.93816704487E+00 -1.94328712822E+00 -1.94844901197E+00 -1.95364132998E+00
 -1.95885017225E+00 -1.96405865877E+00 -1.96924649198E+00 -1.97438949941E+00
 -1.97945918145E+00 -1.98442228235E+00 -1.98924040530E+00 -1.99386969497E+00
 -1.99826061187E+00 -2.00235782326E+00 -2.00610023343E+00 -2.00942117264E+00
 -2.01224875813E+00 -2.01450643258E+00 -2.01611367498E+00 -2.01698686749E+00
 -2.01704028887E+00 -2.01618719334E+00 -2.01434092310E+00 -2.01141599662E+00
 -2.00732911365E+00 -2.00200002427E+00 -1.99535222433E+00 -1.98731346328E+00
 -1.97781608235E+00 -1.96679723850E+00 -1.95419910913E+00 -1.93996920718E+00
 -1.92406096066E+00 -1.90643471590E+00 -1.88705930385E+00 -1.86591425895E+00
 -1.84299269913E+00 -1.81830476814E+00 -1.79188141725E+00 -1.76377817923E+00
 -1.73407848326E+00 -1.70289599844E+00 -1.67037549518E+00 -1.63669179314E+00
 -1.60204652322E+00 -1.56666265885E+00 -1.53077704225E+00 -1.49463140556E+00
 -1.45846262084E+00 -1.42249306163E+00 -1.38692199095E+00 -1.35191879176E+00
 -1.31761863630E+00 -1.28412088406E+00 -1.25149015557E+00 -1.21975970933E+00
 -1.18893650497E+00 -1.15900720417E+00 -1.12994435389E+00 -1.10171210194E+00
 -1.07427097867E+00 -1.04758149717E+00 -1.02160653345E+00 -9.96312613184E-01
 -9.71670334700E-01 -9.47654196909E-01 -9.24242086363E-01 -9.01414629360E-01
 -8.79154551753E-01 -8.57446127876E-01 -8.36274750675E-01 -8.15626621983E-01
 -7.95488543962E-01 -7.75847786631E-01 -7.56692007597E-01 -7.38009204856E-01
 -7.19787689072E-01 -7.02016066554E-01 -6.84683227767E-01 -6.67778338543E-01
 -6.51290832594E-01 -6.35210404636E-01 -6.19527003863E-01 -6.04230827637E-01
 -5.89312315347E-01 -5.74762142439E-01 -5.60571214579E-01 -5.46730661977E-01
 -5.33231833836E-01 -5.20066292949E-01 -5.07225810425E-01 -4.94702360544E-01
 -4.82488115742E-01 -4.70575441719E-01 -4.58956892666E-01 -4.47625206611E-01
 -4.36573300881E-01 -4.25794267677E-01 -4.15281369750E-01 -4.05028036198E-01
 -3.95027858353E-01 -3.85274585779E-01 -3.75762122363E-01 -3.66484522505E-01
 -3.57435987404E-01 -3.48610861431E-01 -3.40003628595E-01 -3.31608909094E-01
 -3.23421455956E-01 -3.15436151757E-01 -3.07648005420E-01 -3.00052149102E-01
 -2.92643835145E-01 -2.85418433111E-01 -2.78371426888E-01 -2.71498411870E-01
 -2.64795092197E-01 -2.58257278076E-01 -2.51880883161E-01 -2.45661921997E-01
 -2.39596507532E-01 -2.33680848683E-01 -2.27911247972E-01 -2.22284099210E-01
 -2.16795885245E-01 -2.11443175767E-01 -2.06222625156E-01 -2.01130970399E-01
 -1.96165029046E-01 -1.91321697222E-01 -1.86597947687E-01 -1.81990827943E-01
 -1.77497458391E-01 -1.73115030529E-01 -1.68840805196E-01 -1.64672110862E-01
 -1.60606341959E-01 -1.56640957247E-01 -1.52773478232E-01 -1.49001487615E-01
 -1.45322627778E-01 -1.41734599314E-01 -1.38235159588E-01 -1.34822121337E-01
 -1.31493351301E-01 -1.28246768890E-01 -1.25080344884E-01 -1.21992100165E-01
 -1.18980104480E-01 -1.16042475233E-01 -1.13177376312E-01 -1.10383016934E-01
 -1.07657650535E-01 -1.04999573673E-01 -1.02407124962E-01 -9.98786840376E-02
 -9.74126705422E-02 -9.50075431370E-02 -9.26617985389E-02 -9.03739705814E-02
 -8.81426292974E-02 -8.59663800260E-02 -8.38438625405E-02 -8.17737501985E-02
 -7.97547491123E-02 -7.77855973406E-02 -7.58650640993E-02 -7.39919489927E-02
 -7.21650812629E-02 -7.03833190581E-02 -6.86455487188E-02 -6.69506840820E-02
 -6.52976658023E-02
</PP_LOCAL>


<PP_NONLOCAL>
  <PP_BETA>
    1    0             Beta    L
   353
  7.63599747962E-04  7.82930437316E-04  8.02750467354E-04  8.23072238063E-04
  8.43908493859E-04  8.65272208795E-04  8.87176739637E-04  9.09635825854E-04
  9.32663436548E-04  9.56274038356E-04  9.80482327532E-04  1.00530345959E-03
  1.03075297275E-03  1.05684671141E-03  1.08360105576E-03  1.11103273043E-03
  1.13915880450E-03  1.16799692109E-03  1.19756510606E-03  1.22788180625E-03
  1.25896600426E-03  1.29083710372E-03  1.32351504401E-03  1.35702026206E-03
  1.39137369230E-03  1.42659680499E-03  1.46271164439E-03  1.49974071407E-03
  1.53770724471E-03  1.57663492625E-03  1.61654806095E-03  1.65747167823E-03
  1.69943130499E-03  1.74245319532E-03  1.78656425385E-03  1.83179199760E-03
  1.87816478547E-03  1.92571151217E-03  1.97446199093E-03  2.02444664725E-03
  2.07569674856E-03  2.12824432774E-03  2.18212222130E-03  2.23736414597E-03
  2.29400458385E-03  2.35207901206E-03  2.41162374966E-03  2.47267595761E-03
  2.53527383014E-03  2.59945651823E-03  2.66526412953E-03  2.73273788155E-03
  2.80191987191E-03  2.87285342290E-03  2.94558285168E-03  3.02015366183E-03
  3.09661246661E-03  3.17500710390E-03  3.25538655958E-03  3.33780115889E-03
  3.42230241337E-03  3.50894313557E-03  3.59777755400E-03  3.68886123642E-03
  3.78225116646E-03  3.87800570525E-03  3.97618482122E-03  4.07685001326E-03
  4.18006366033E-03  4.28589120275E-03  4.39439846328E-03  4.50565317789E-03
  4.61972499578E-03  4.73668586198E-03  4.85660810390E-03  4.97956711005E-03
  5.10564018215E-03  5.23490576946E-03  5.36744499964E-03  5.50334091336E-03
  5.64267846402E-03  5.78554451802E-03  5.93202938535E-03  6.08222414045E-03
  6.23622291866E-03  6.39412215053E-03  6.55602132732E-03  6.72202108714E-03
  6.89222551131E-03  7.06674174150E-03  7.24567883141E-03  7.42914927758E-03
  7.61726748838E-03  7.81015169743E-03  8.00792281529E-03  8.21070519477E-03
  8.41862548262E-03  8.63181453269E-03  8.85040587522E-03  9.07453686441E-03
  9.30434829577E-03  9.53998402289E-03  9.78159248792E-03  1.00293251908E-02
  1.02833378368E-02  1.05437899532E-02  1.08108456547E-02  1.10846728775E-02
  1.13654433784E-02  1.16533342657E-02  1.19485264674E-02  1.22512058787E-02
  1.25615633616E-02  1.28797947439E-02  1.32061000529E-02  1.35406854285E-02
  1.38837619736E-02  1.42355465186E-02  1.45962604727E-02  1.49661328830E-02
  1.53453969903E-02  1.57342925226E-02  1.61330664596E-02  1.65419707345E-02
  1.69612645279E-02  1.73912146486E-02  1.78320932356E-02  1.82841804329E-02
  1.87477640057E-02  1.92231389530E-02  1.97106082708E-02  2.02104821819E-02
  2.07230800459E-02  2.12487295887E-02  2.17877665153E-02  2.23405360340E-02
  2.29073924688E-02  2.34887003993E-02  2.40848323581E-02  2.46961726488E-02
  2.53231146576E-02  2.59660639061E-02  2.66254353588E-02  2.73016560916E-02
  2.79951648941E-02  2.87064122537E-02  2.94358614883E-02  3.01839879602E-02
  3.09512805860E-02  3.17382421965E-02  3.25453895105E-02  3.33732534877E-02
  3.42223800618E-02  3.50933308706E-02  3.59866828324E-02  3.69030307798E-02
  3.78429847319E-02  3.88071740462E-02  3.97962446793E-02  4.08108614122E-02
  4.18517089218E-02  4.29194978129E-02  4.40149492199E-02  4.51388061746E-02
  4.62918487885E-02  4.74748635088E-02  4.86886697483E-02  4.99341082347E-02
  5.12120484738E-02  5.25233808801E-02  5.38690280155E-02  5.52499443182E-02
  5.66671119741E-02  5.81215329296E-02  5.96142591080E-02  6.11463652090E-02
  6.27189597061E-02  6.43331919531E-02  6.59902439348E-02  6.76913410579E-02
  6.94377399229E-02  7.12307504060E-02  7.30717155866E-02  7.49620259615E-02
  7.69031220562E-02  7.88964854257E-02  8.09436485952E-02  8.30462009915E-02
  8.52057755630E-02  8.74240695437E-02  8.97028305780E-02  9.20438654672E-02
  9.44490371278E-02  9.69202726326E-02  9.94595670184E-02  1.02068971365E-01
  1.04750607067E-01  1.07506656641E-01  1.10339384382E-01  1.13251106737E-01
  1.16244222868E-01  1.19321194761E-01  1.22484553016E-01  1.25736901504E-01
  1.29080909362E-01  1.32519316829E-01  1.36054924323E-01  1.39690595032E-01
  1.43429244207E-01  1.47273849117E-01  1.51227418765E-01  1.55293017866E-01