<PP_INFO>
Generated using JLMartins' code
Author: Renata Wentzcovitch  Generation date: before 1998
Info: Oxygen LDA 2s2 2p4 l=1 local Martins-Troullier
    0        The Pseudo was generated with a Non-Relativistic Calculation
  0.00000000000E+00    Local Potential cutoff radius
nl pn  l   occ               Rcut            Rcut US             E pseu
2S  0  0  2.00      0.00000000000      0.00000000000      0.00000000000
2P  0  1  4.00      0.00000000000      0.00000000000      0.00000000000
</PP_INFO>


<PP_HEADER>
   0                   Version Number
  O                    Element
   NC                  Norm - Conserving pseudopotential
    F                  Nonlinear Core Correction
 SLA  PZ   NOGX NOGC   PZ   Exchange-Correlation functional
    6.00000000000      Z valence
    0.00000000000      Total energy
  0.0000000  0.0000000 Suggested cutoff for wfc and rho
    0                  Max angular momentum component
  921                  Number of points in mesh
    2    1             Number of Wavefunctions, Number of Projectors
 Wavefunctions         nl  l   occ
                       2S  0  2.00
                       2P  1  4.00
</PP_HEADER>


<PP_MESH>
  <PP_R>
  3.09844022083E-04  3.14212345306E-04  3.18642255154E-04  3.23134619905E-04
  3.27690320075E-04  3.32310248597E-04  3.36995310992E-04  3.41746425546E-04
  3.46564523494E-04  3.51450549198E-04  3.56405460335E-04  3.61430228083E-04
  3.66525837313E-04  3.71693286780E-04  3.76933589321E-04  3.82247772053E-04
  3.87636876572E-04  3.93101959159E-04  3.98644090989E-04  4.04264358337E-04
  4.09963862793E-04  4.15743721479E-04  4.21605067265E-04  4.27549048994E-04
  4.33576831706E-04  4.39689596864E-04  4.45888542591E-04  4.52174883900E-04
  4.58549852934E-04  4.65014699206E-04  4.71570689849E-04  4.78219109856E-04
  4.84961262340E-04  4.91798468784E-04  4.98732069302E-04  5.05763422903E-04
  5.12893907753E-04  5.20124921451E-04  5.27457881299E-04  5.34894224581E-04
  5.42435408842E-04  5.50082912181E-04  5.57838233531E-04  5.65702892961E-04
  5.73678431968E-04  5.81766413785E-04  5.89968423682E-04  5.98286069278E-04
  6.06720980859E-04  6.15274811695E-04  6.23949238364E-04  6.32745961081E-04
  6.41666704031E-04  6.50713215710E-04  6.59887269263E-04  6.69190662832E-04
  6.78625219914E-04  6.88192789712E-04  6.97895247500E-04  7.07734494990E-04
  7.17712460707E-04  7.27831100364E-04  7.38092397246E-04  7.48498362602E-04
  7.59051036032E-04  7.69752485896E-04  7.80604809711E-04  7.91610134568E-04
  8.02770617546E-04  8.14088446134E-04  8.25565838664E-04  8.37205044742E-04
  8.49008345688E-04  8.60978054988E-04  8.73116518743E-04  8.85426116132E-04
  8.97909259873E-04  9.10568396704E-04  9.23406007855E-04  9.36424609541E-04
  9.49626753447E-04  9.63015027238E-04  9.76592055056E-04  9.90360498044E-04
  1.00432305486E-03  1.01848246221E-03  1.03284149538E-03  1.04740296880E-03
  1.06216973654E-03  1.07714469296E-03  1.09233077318E-03  1.10773095374E-03
  1.12334825310E-03  1.13918573232E-03  1.15524649559E-03  1.17153369088E-03
  1.18805051051E-03  1.20480019185E-03  1.22178601788E-03  1.23901131789E-03
  1.25647946808E-03  1.27419389227E-03  1.29215806254E-03  1.31037549992E-03
  1.32884977510E-03  1.34758450909E-03  1.36658337396E-03  1.38585009354E-03
  1.40538844418E-03  1.42520225546E-03  1.44529541093E-03  1.46567184894E-03
  1.48633556332E-03  1.50729060423E-03  1.52854107892E-03  1.55009115256E-03
  1.57194504902E-03  1.59410705175E-03  1.61658150456E-03  1.63937281252E-03
  1.66248544281E-03  1.68592392556E-03  1.70969285479E-03  1.73379688931E-03
  1.75824075356E-03  1.78302923862E-03  1.80816720313E-03  1.83365957420E-03
  1.85951134841E-03  1.88572759280E-03  1.91231344584E-03  1.93927411843E-03
  1.96661489496E-03  1.99434113431E-03  2.02245827090E-03  2.05097181579E-03
  2.07988735772E-03  2.10921056422E-03  2.13894718276E-03  2.16910304178E-03
  2.19968405195E-03  2.23069620724E-03  2.26214558612E-03  2.29403835278E-03
  2.32638075830E-03  2.35917914189E-03  2.39243993215E-03  2.42616964830E-03
  2.46037490147E-03  2.49506239599E-03  2.53023893073E-03  2.56591140039E-03
  2.60208679691E-03  2.63877221077E-03  2.67597483244E-03  2.71370195373E-03
  2.75196096930E-03  2.79075937802E-03  2.83010478452E-03  2.87000490062E-03
  2.91046754686E-03  2.95150065406E-03  2.99311226484E-03  3.03531053521E-03
  3.07810373615E-03  3.12150025528E-03  3.16550859846E-03  3.21013739145E-03
  3.25539538166E-03  3.30129143977E-03  3.34783456158E-03  3.39503386968E-03
  3.44289861529E-03  3.49143818004E-03  3.54066207786E-03  3.59057995678E-03
  3.64120160087E-03  3.69253693212E-03  3.74459601244E-03  3.79738904556E-03
  3.85092637909E-03  3.90521850652E-03  3.96027606928E-03  4.01610985883E-03
  4.07273081877E-03  4.13015004699E-03  4.18837879783E-03  4.24742848433E-03
  4.30731068041E-03  4.36803712318E-03  4.42961971520E-03  4.49207052687E-03
  4.55540179874E-03  4.61962594395E-03  4.68475555063E-03  4.75080338440E-03
  4.81778239084E-03  4.88570569805E-03  4.95458661922E-03  5.02443865523E-03
  5.09527549730E-03  5.16711102967E-03  5.23995933236E-03  5.31383468384E-03
  5.38875156394E-03  5.46472465659E-03  5.54176885278E-03  5.61989925339E-03
  5.69913117225E-03  5.77948013907E-03  5.86096190250E-03  5.94359243322E-03
  6.02738792709E-03  6.11236480828E-03  6.19853973255E-03  6.28592959045E-03
  6.37455151067E-03  6.46442286339E-03  6.55556126370E-03  6.64798457499E-03
  6.74171091254E-03  6.83675864702E-03  6.93314640808E-03  7.03089308803E-03
  7.13001784553E-03  7.23054010935E-03  7.33247958219E-03  7.43585624450E-03
  7.54069035843E-03  7.64700247182E-03  7.75481342217E-03  7.86414434078E-03
  7.97501665685E-03  8.08745210172E-03  8.20147271310E-03  8.31710083938E-03
  8.43435914405E-03  8.55327061011E-03  8.67385854460E-03  8.79614658313E-03
  8.92015869455E-03  9.04591918563E-03  9.17345270583E-03  9.30278425212E-03
  9.43393917392E-03  9.56694317799E-03  9.70182233355E-03  9.83860307735E-03
  9.97731221885E-03  1.01179769455E-02  1.02606248280E-02  1.04052838258E-02
  1.05519822926E-02  1.07007489816E-02  1.08516130518E-02  1.10046040728E-02
  1.11597520315E-02  1.13170873372E-02  1.14766408284E-02  1.16384437778E-02
  1.18025278995E-02  1.19689253545E-02  1.21376687571E-02  1.23087911817E-02
  1.24823261688E-02  1.26583077317E-02  1.28367703635E-02  1.30177490434E-02
  1.32012792438E-02  1.33873969371E-02  1.35761386031E-02  1.37675412358E-02
  1.39616423506E-02  1.41584799919E-02  1.43580927407E-02  1.45605197217E-02
  1.47658006111E-02  1.49739756447E-02  1.51850856255E-02  1.53991719317E-02
  1.56162765248E-02  1.58364419582E-02  1.60597113849E-02  1.62861285664E-02
  1.65157378812E-02  1.67485843336E-02  1.69847135621E-02  1.72241718488E-02
  1.74670061284E-02  1.77132639971E-02  1.79629937222E-02  1.82162442516E-02
  1.84730652232E-02  1.87335069747E-02  1.89976205536E-02  1.92654577269E-02
  1.95370709916E-02  1.98125135847E-02  2.00918394940E-02  2.03751034681E-02
  2.06623610277E-02  2.09536684762E-02  2.12490829108E-02  2.15486622337E-02
  2.18524651634E-02  2.21605512462E-02  2.24729808680E-02  2.27898152660E-02
  2.31111165408E-02  2.34369476683E-02  2.37673725127E-02  2.41024558381E-02
  2.44422633221E-02  2.47868615679E-02  2.51363181179E-02  2.54907014668E-02
  2.58500810747E-02  2.62145273813E-02  2.65841118192E-02  2.69589068281E-02
  2.73389858690E-02  2.77244234387E-02  2.81152950842E-02  2.85116774175E-02
  2.89136481308E-02  2.93212860117E-02  2.97346709586E-02  3.01538839961E-02
  3.05790072915E-02  3.10101241702E-02  3.14473191325E-02  3.18906778700E-02
  3.23402872825E-02  3.27962354948E-02  3.32586118742E-02  3.37275070481E-02
  3.42030129213E-02  3.46852226945E-02  3.51742308825E-02  3.56701333323E-02
  3.61730272424E-02  3.66830111816E-02  3.72001851085E-02  3.77246503908E-02
  3.82565098253E-02  3.87958676582E-02  3.93428296053E-02  3.98975028731E-02
  4.04599961791E-02  4.10304197738E-02  4.16088854623E-02  4.21955066254E-02
  4.27903982430E-02  4.33936769156E-02  4.40054608877E-02  4.46258700711E-02
  4.52550260679E-02  4.58930521947E-02  4.65400735066E-02  4.71962168220E-02
  4.78616107469E-02  4.85363857007E-02  4.92206739416E-02  4.99146095920E-02
  5.06183286658E-02  5.13319690940E-02  5.20556707525E-02  5.27895754892E-02
  5.35338271516E-02  5.42885716155E-02  5.50539568132E-02  5.58301327628E-02
  5.66172515971E-02  5.74154675939E-02  5.82249372062E-02  5.90458190926E-02
  5.98782741486E-02  6.07224655380E-02  6.15785587250E-02  6.24467215067E-02
  6.33271240457E-02  6.42199389037E-02  6.51253410754E-02  6.60435080224E-02
  6.69746197084E-02  6.79188586343E-02  6.88764098739E-02  6.98474611104E-02
  7.08322026728E-02  7.18308275737E-02  7.28435315467E-02  7.38705130852E-02
  7.49119734807E-02  7.59681168628E-02  7.70391502390E-02  7.81252835353E-02
  7.92267296373E-02  8.03437044319E-02  8.14764268498E-02  8.26251189082E-02
  8.37900057545E-02  8.49713157100E-02  8.61692803155E-02  8.73841343758E-02
  8.86161160062E-02  8.98654666790E-02  9.11324312710E-02  9.24172581112E-02
  9.37201990299E-02  9.50415094076E-02  9.63814482254E-02  9.77402781157E-02
  9.91182654133E-02  1.00515680208E-01  1.01932796398E-01  1.03369891743E-01
  1.04827247917E-01  1.06305150568E-01  1.07803889368E-01  1.09323758075E-01
  1.10865054590E-01  1.12428081009E-01  1.14013143693E-01  1.15620553318E-01
  1.17250624941E-01  1.18903678063E-01  1.20580036685E-01  1.22280029381E-01
  1.24003989355E-01  1.25752254507E-01  1.27525167503E-01  1.29323075841E-01
  1.31146331916E-01  1.32995293091E-01  1.34870321770E-01  1.36771785463E-01
  1.38700056864E-01  1.40655513921E-01  1.42638539908E-01  1.44649523506E-01
  1.46688858874E-01  1.48756945728E-01  1.50854189419E-01  1.52981001014E-01
  1.55137797375E-01  1.57325001241E-01  1.59543041311E-01  1.61792352328E-01
  1.64073375164E-01  1.66386556907E-01  1.68732350947E-01  1.71111217068E-01
  1.73523621536E-01  1.75970037189E-01  1.78450943533E-01  1.80966826833E-01
  1.83518180210E-01  1.86105503738E-01  1.88729304541E-01  1.91390096892E-01
  1.94088402314E-01  1.96824749684E-01  1.99599675336E-01  2.02413723163E-01
  2.05267444727E-01  2.08161399368E-01  2.11096154310E-01  2.14072284773E-01
  2.17090374090E-01  2.20151013815E-01  2.23254803844E-01  2.26402352529E-01
  2.29594276799E-01  2.32831202283E-01  2.36113763428E-01  2.39442603627E-01
  2.42818375342E-01  2.46241740236E-01  2.49713369300E-01  2.53233942984E-01
  2.56804151330E-01  2.60424694113E-01  2.64096280970E-01  2.67819631543E-01
  2.71595475621E-01  2.75424553282E-01  2.79307615037E-01  2.83245421979E-01
  2.87238745930E-01  2.91288369595E-01  2.95395086713E-01  2.99559702214E-01
  3.03783032375E-01  3.08065904983E-01  3.12409159495E-01  3.16813647202E-01
  3.21280231398E-01  3.25809787549E-01  3.30403203460E-01  3.35061379457E-01
  3.39785228557E-01  3.44575676650E-01  3.49433662679E-01  3.54360138824E-01
  3.59356070690E-01  3.64422437497E-01  3.69560232268E-01  3.74770462028E-01
  3.80054147999E-01  3.85412325799E-01  3.90846045648E-01  3.96356372574E-01
  4.01944386618E-01  4.07611183048E-01  4.13357872575E-01  4.19185581569E-01
  4.25095452278E-01  4.31088643057E-01  4.37166328590E-01  4.43329700123E-01
  4.49579965696E-01  4.55918350382E-01  4.62346096524E-01  4.68864463981E-01
  4.75474730375E-01  4.82178191337E-01  4.88976160769E-01  4.95869971093E-01
  5.02860973520E-01  5.09950538306E-01  5.17140055031E-01  5.24430932863E-01
  5.31824600836E-01  5.39322508133E-01  5.46926124369E-01  5.54636939875E-01
  5.62456465998E-01  5.70386235389E-01  5.78427802307E-01  5.86582742927E-01
  5.94852655642E-01  6.03239161382E-01  6.11743903929E-01  6.20368550240E-01
  6.29114790772E-01  6.37984339817E-01  6.46978935835E-01  6.56100341796E-01
  6.65350345525E-01  6.74730760051E-01  6.84243423966E-01  6.93890201783E-01
  7.03672984300E-01  7.13593688976E-01  7.23654260298E-01  7.33856670173E-01
  7.44202918304E-01  7.54695032590E-01  7.65335069518E-01  7.76125114569E-01
  7.87067282628E-01  7.98163718394E-01  8.09416596804E-01  8.20828123458E-01
  8.32400535053E-01  8.44136099816E-01  8.56037117958E-01  8.68105922116E-01
  8.80344877813E-01  8.92756383924E-01  9.05342873145E-01  9.18106812467E-01
  9.31050703664E-01  9.44177083779E-01  9.57488525626E-01  9.70987638288E-01
  9.84677067637E-01  9.98559496842E-01  1.01263764691E+00  1.02691427719E+00
  1.04139218596E+00  1.05607421093E+00  1.07096322983E+00  1.08606216095E+00
  1.10137396373E+00  1.11690163934E+00  1.13264823124E+00  1.14861682582E+00
  1.16481055297E+00  1.18123258672E+00  1.19788614585E+00  1.21477449449E+00
  1.23190094282E+00  1.24926884767E+00  1.26688161323E+00  1.28474269163E+00
  1.30285558371E+00  1.32122383966E+00  1.33985105972E+00  1.35874089487E+00
  1.37789704758E+00  1.39732327253E+00  1.41702337731E+00  1.43700122321E+00
  1.45726072595E+00  1.47780585646E+00  1.49864064164E+00  1.51976916519E+00
  1.54119556836E+00  1.56292405080E+00  1.58495887135E+00  1.60730434892E+00
  1.62996486329E+00  1.65294485598E+00  1.67624883116E+00  1.69988135648E+00
  1.72384706398E+00  1.74815065103E+00  1.77279688120E+00  1.79779058524E+00
  1.82313666199E+00  1.84884007935E+00  1.87490587530E+00  1.90133915879E+00
  1.92814511085E+00  1.95532898552E+00  1.98289611094E+00  2.01085189034E+00
  2.03920180314E+00  2.06795140603E+00  2.09710633402E+00  2.12667230156E+00
  2.15665510368E+00  2.18706061710E+00  2.21789480141E+00  2.24916370019E+00
  2.28087344227E+00  2.31303024284E+00  2.34564040474E+00  2.37871031967E+00
  2.41224646944E+00  2.44625542724E+00  2.48074385893E+00  2.51571852436E+00
  2.55118627868E+00  2.58715407367E+00  2.62362895915E+00  2.66061808430E+00
  2.69812869911E+00  2.73616815579E+00  2.77474391018E+00  2.81386352326E+00
  2.85353466260E+00  2.89376510387E+00  2.93456273237E+00  2.97593554455E+00
  3.01789164963E+00  3.06043927114E+00  3.10358674853E+00  3.14734253887E+00
  3.19171521842E+00  3.23671348437E+00  3.28234615652E+00  3.32862217903E+00
  3.37555062215E+00  3.42314068399E+00  3.47140169236E+00  3.52034310658E+00
  3.56997451932E+00  3.62030565849E+00  3.67134638916E+00  3.72310671548E+00
  3.77559678263E+00  3.82882687884E+00  3.88280743737E+00  3.93754903859E+00
  3.99306241203E+00  4.04935843849E+00  4.10644815216E+00  4.16434274282E+00
  4.22305355798E+00  4.28259210516E+00  4.34297005411E+00  4.40419923909E+00
  4.46629166122E+00  4.52925949081E+00  4.59311506976E+00  4.65787091397E+00
  4.72353971579E+00  4.79013434652E+00  4.85766785892E+00  4.92615348976E+00
  4.99560466246E+00  5.06603498967E+00  5.13745827595E+00  5.20988852050E+00
  5.28333991988E+00  5.35782687080E+00  5.43336397294E+00  5.50996603181E+00
  5.58764806166E+00  5.66642528842E+00  5.74631315268E+00  5.82732731271E+00
  5.90948364755E+00  5.99279826010E+00  6.07728748030E+00  6.16296786830E+00
  6.24985621773E+00  6.33796955899E+00  6.42732516257E+00  6.51794054245E+00
  6.60983345956E+00  6.70302192518E+00  6.79752420455E+00  6.89335882043E+00
  6.99054455671E+00  7.08910046210E+00  7.18904585388E+00  7.29040032166E+00
  7.39318373124E+00  7.49741622849E+00  7.60311824334E+00  7.71031049370E+00
  7.81901398959E+00  7.92925003727E+00  8.04104024333E+00  8.15440651902E+00
  8.26937108450E+00  8.38595647318E+00  8.50418553618E+00  8.62408144676E+00
  8.74566770492E+00  8.86896814195E+00  8.99400692513E+00  9.12080856245E+00
  9.24939790746E+00  9.37980016406E+00  9.51204089153E+00  9.64614600946E+00
  9.78214180289E+00  9.92005492742E+00  1.00599124145E+01  1.02017416766E+01
  1.03455705127E+01  1.04914271138E+01  1.06393400682E+01  1.07893383672E+01
  1.09414514112E+01  1.10957090146E+01  1.12521414126E+01  1.14107792662E+01
  1.15716536692E+01  1.17347961533E+01  1.19002386950E+01  1.20680137216E+01
  1.22381541175E+01  1.24106932308E+01  1.25856648798E+01  1.27631033593E+01
  1.29430434479E+01  1.31255204145E+01  1.33105700251E+01  1.34982285501E+01
  1.36885327710E+01  1.38815199882E+01  1.40772280278E+01  1.42756952491E+01
  1.44769605524E+01  1.46810633863E+01  1.48880437556E+01  1.50979422292E+01
  1.53107999477E+01  1.55266586321E+01  1.57455605913E+01  1.59675487308E+01
  1.61926665609E+01  1.64209582055E+01  1.66524684105E+01  1.68872425526E+01
  1.71253266483E+01  1.73667673629E+01  1.76116120194E+01  1.78599086083E+01
  1.81117057965E+01  1.83670529370E+01  1.86260000786E+01  1.88885979759E+01
  1.91548980989E+01  1.94249526432E+01  1.96988145404E+01  1.99765374684E+01
  2.02581758616E+01  2.05437849221E+01  2.08334206303E+01  2.11271397556E+01
  2.14249998679E+01  2.17270593488E+01  2.20333774029E+01  2.23440140695E+01
  2.26590302344E+01  2.29784876417E+01  2.33024489062E+01  2.36309775253E+01
  2.39641378916E+01  2.43019953057E+01  2.46446159886E+01  2.49920670952E+01
  2.53444167269E+01  2.57017339455E+01  2.60640887861E+01  2.64315522717E+01
  2.68041964260E+01  2.71820942887E+01  2.75653199289E+01  2.79539484601E+01
  2.83480560546E+01  2.87477199589E+01  2.91530185083E+01  2.95640311427E+01
  2.99808384218E+01  3.04035220412E+01  3.08321648483E+01  3.12668508584E+01
  3.17076652714E+01  3.21546944882E+01  3.26080261281E+01  3.30677490456E+01
  3.35339533477E+01  3.40067304120E+01  3.44861729043E+01  3.49723747970E+01
  3.54654313870E+01  3.59654393152E+01  3.64724965846E+01  3.69867025801E+01
  3.75081580877E+01  3.80369653143E+01  3.85732279079E+01  3.91170509777E+01
  3.96685411147E+01  4.02278064128E+01  4.07949564897E+01  4.13701025087E+01
  4.19533572002E+01  4.25448348840E+01  4.31446514916E+01  4.37529245891E+01
  4.43697733999E+01  4.49953188282E+01  4.56296834832E+01  4.62729917021E+01
  4.69253695756E+01  4.75869449717E+01  4.82578475614E+01  4.89382088437E+01
  4.96281621716E+01  5.03278427782E+01  5.10373878031E+01  5.17569363194E+01
  5.24866293608E+01  5.32266099497E+01  5.39770231245E+01  5.47380159687E+01
  5.55097376392E+01  5.62923393960E+01  5.70859746315E+01  5.78907989008E+01
  5.87069699520E+01  5.95346477573E+01  6.03739945441E+01  6.12251748271E+01
  6.20883554404E+01  6.29637055702E+01  6.38513967878E+01  6.47516030835E+01
  6.56645009008E+01  6.65902691705E+01  6.75290893461E+01  6.84811454394E+01
  6.94466240564E+01  7.04257144341E+01  7.14186084773E+01  7.24255007963E+01
  7.34465887454E+01  7.44820724610E+01  7.55321549012E+01  7.65970418857E+01
  7.76769421355E+01  7.87720673147E+01  7.98826320712E+01  8.10088540793E+01
  8.21509540822E+01  8.33091559351E+01  8.44836866493E+01  8.56747764365E+01
  8.68826587541E+01  8.81075703510E+01  8.93497513138E+01  9.06094451139E+01
  9.18868986552E+01  9.31823623229E+01  9.44960900319E+01  9.58283392771E+01
  9.71793711835E+01  9.85494505578E+01  9.99388459399E+01  1.01347829656E+02
  1.02776677871E+02  1.04225670643E+02  1.05695091981E+02  1.07185229896E+02
  1.08696376458E+02  1.10228827858E+02  1.11782884462E+02  1.13358850868E+02
  1.14957035973E+02  1.16577753024E+02  1.18221319688E+02  1.19888058110E+02
  1.21578294974E+02
  </PP_R>
  <PP_RAB>
  4.33781630917E-06  4.39897283428E-06  4.46099157216E-06  4.52388467866E-06
  4.58766448105E-06  4.65234348036E-06  4.71793435388E-06  4.78444995765E-06
  4.85190332892E-06  4.92030768877E-06  4.98967644469E-06  5.06002319316E-06
  5.13136172238E-06  5.20370601492E-06  5.27707025050E-06  5.35146880874E-06
  5.42691627200E-06  5.50342742822E-06  5.58101727384E-06  5.65970101671E-06
  5.73949407910E-06  5.82041210070E-06  5.90247094171E-06  5.98568668592E-06
  6.07007564388E-06  6.15565435610E-06  6.24243959628E-06  6.33044837460E-06
  6.41969794107E-06  6.51020578889E-06  6.60198965789E-06  6.69506753799E-06
  6.78945767277E-06  6.88517856298E-06  6.98224897023E-06  7.08068792064E-06
  7.18051470854E-06  7.28174890032E-06  7.38441033819E-06  7.48851914413E-06
  7.59409572379E-06  7.70116077053E-06  7.80973526943E-06  7.91984050145E-06
  8.03149804756E-06  8.14472979300E-06  8.25955793155E-06  8.37600496990E-06
  8.49409373203E-06  8.61384736373E-06  8.73528933709E-06  8.85844345513E-06
  8.98333385644E-06  9.10998501994E-06  9.23842176968E-06  9.36866927965E-06
  9.50075307880E-06  9.63469905597E-06  9.77053346499E-06  9.90828292986E-06
  1.00479744499E-05  1.01896354051E-05  1.03332935614E-05  1.04789770764E-05
  1.06267145045E-05  1.07765348025E-05  1.09284673360E-05  1.10825418840E-05
  1.12387886456E-05  1.13972382459E-05  1.15579217413E-05  1.17208706264E-05
  1.18861168396E-05  1.20536927698E-05  1.22236312624E-05  1.23959656258E-05
  1.25707296382E-05  1.27479575539E-05  1.29276841100E-05  1.31099445336E-05
  1.32947745483E-05  1.34822103813E-05  1.36722887708E-05  1.38650469726E-05
  1.40605227680E-05  1.42587544709E-05  1.44597809354E-05  1.46636415631E-05
  1.48703763116E-05  1.50800257014E-05  1.52926308246E-05  1.55082333523E-05
  1.57268755434E-05  1.59486002525E-05  1.61734509383E-05  1.64014716723E-05
  1.66327071472E-05  1.68672026859E-05  1.71050042504E-05  1.73461584505E-05
  1.75907125531E-05  1.78387144917E-05  1.80902128755E-05  1.83452569989E-05
  1.86038968514E-05  1.88661831273E-05  1.91321672354E-05  1.94019013096E-05
  1.96754382186E-05  1.99528315764E-05  2.02341357531E-05  2.05194058851E-05
  2.08086978865E-05  2.11020684592E-05  2.13995751049E-05  2.17012761358E-05
  2.20072306863E-05  2.23174987245E-05  2.26321410638E-05  2.29512193753E-05
  2.32747961993E-05  2.36029349578E-05  2.39356999671E-05  2.42731564503E-05
  2.46153705498E-05  2.49624093407E-05  2.53143408438E-05  2.56712340388E-05
  2.60331588778E-05  2.64001862993E-05  2.67723882418E-05  2.71498376581E-05
  2.75326085295E-05  2.79207758803E-05  2.83144157926E-05  2.87136054210E-05
  2.91184230080E-05  2.95289478991E-05  2.99452605586E-05  3.03674425850E-05
  3.07955767273E-05  3.12297469013E-05  3.16700382057E-05  3.21165369389E-05
  3.25693306162E-05  3.30285079865E-05  3.34941590502E-05  3.39663750762E-05
  3.44452486205E-05  3.49308735438E-05  3.54233450302E-05  3.59227596055E-05
  3.64292151568E-05  3.69428109508E-05  3.74636476541E-05  3.79918273522E-05
  3.85274535702E-05  3.90706312923E-05  3.96214669833E-05  4.01800686086E-05
  4.07465456561E-05  4.13210091569E-05  4.19035717078E-05  4.24943474929E-05
  4.30934523061E-05  4.37010035740E-05  4.43171203784E-05  4.49419234804E-05
  4.55755353432E-05  4.62180801568E-05  4.68696838621E-05  4.75304741755E-05
  4.82005806140E-05  4.88801345206E-05  4.95692690900E-05  5.02681193949E-05
  5.09768224121E-05  5.16955170497E-05  5.24243441741E-05  5.31634466379E-05
  5.39129693073E-05  5.46730590913E-05  5.54438649700E-05  5.62255380237E-05
  5.70182314628E-05  5.78221006578E-05  5.86373031697E-05  5.94639987807E-05
  6.03023495258E-05  6.11525197245E-05  6.20146760128E-05  6.28889873761E-05
  6.37756251824E-05  6.46747632153E-05  6.55865777088E-05  6.65112473816E-05
  6.74489534717E-05  6.83998797727E-05  6.93642126690E-05  7.03421411732E-05
  7.13338569621E-05  7.23395544154E-05  7.33594306530E-05  7.43936855738E-05
  7.54425218952E-05  7.65061451923E-05  7.75847639389E-05  7.86785895475E-05
  7.97878364116E-05  8.09127219470E-05  8.20534666350E-05  8.32102940651E-05
  8.43834309792E-05  8.55731073160E-05  8.67795562557E-05  8.80030142663E-05
  8.92437211494E-05  9.05019200875E-05  9.17778576917E-05  9.30717840499E-05
  9.43839527756E-05  9.57146210583E-05  9.70640497131E-05  9.84325032324E-05
  9.98202498374E-05  1.01227561531E-04  1.02654714151E-04  1.04101987423E-04
  1.05569665018E-04  1.07058034605E-04  1.08567387910E-04  1.10098020771E-04
  1.11650233196E-04  1.13224329424E-04  1.14820617983E-04  1.16439411751E-04
  1.18081028017E-04  1.19745788542E-04  1.21434019624E-04  1.23146052164E-04
  1.24882221724E-04  1.26642868599E-04  1.28428337882E-04  1.30238979530E-04
  1.32075148435E-04  1.33937204492E-04  1.35825512670E-04  1.37740443083E-04
  1.39682371064E-04  1.41651677237E-04  1.43648747592E-04  1.45673973561E-04
  1.47727752096E-04  1.49810485743E-04  1.51922582725E-04  1.54064457019E-04
  1.56236528440E-04  1.58439222721E-04  1.60672971597E-04  1.62938212890E-04
  1.65235390594E-04  1.67564954963E-04  1.69927362600E-04  1.72323076544E-04
  1.74752566363E-04  1.77216308244E-04  1.79714785089E-04  1.82248486608E-04
  1.84817909413E-04  1.87423557120E-04  1.90065940444E-04  1.92745577301E-04
  1.95462992908E-04  1.98218719887E-04  2.01013298370E-04  2.03847276104E-04
  2.06721208555E-04  2.09635659026E-04  2.12591198757E-04  2.15588407043E-04
  2.18627871348E-04  2.21710187415E-04  2.24835959388E-04  2.28005799929E-04
  2.31220330337E-04  2.34480180670E-04  2.37785989869E-04  2.41138405884E-04
  2.44538085798E-04  2.47985695959E-04  2.51481912111E-04  2.55027419523E-04
  2.58622913125E-04  2.62269097646E-04  2.65966687750E-04  2.69716408176E-04
  2.73518993882E-04  2.77375190186E-04  2.81285752916E-04  2.85251448553E-04
  2.89273054388E-04  2.93351358667E-04  2.97487160752E-04  3.01681271272E-04
  3.05934512288E-04  3.10247717447E-04  3.14621732152E-04  3.19057413724E-04
  3.23555631571E-04  3.28117267357E-04  3.32743215178E-04  3.37434381734E-04
  3.42191686509E-04  3.47016061951E-04  3.51908453651E-04  3.56869820535E-04
  3.61901135046E-04  3.67003383338E-04  3.72177565469E-04  3.77424695593E-04
  3.82745802166E-04  3.88141928142E-04  3.93614131178E-04  3.99163483844E-04
  4.04791073831E-04  4.10498004164E-04  4.16285393420E-04  4.22154375946E-04
  4.28106102081E-04  4.34141738383E-04  4.40262467855E-04  4.46469490180E-04
  4.52764021954E-04  4.59147296927E-04  4.65620566239E-04  4.72185098673E-04
  4.78842180898E-04  4.85593117724E-04  4.92439232355E-04  4.99381866652E-04
  5.06422381393E-04  5.13562156543E-04  5.20802591519E-04  5.28145105471E-04
  5.35591137554E-04  5.43142147215E-04  5.50799614475E-04  5.58565040223E-04
  5.66439946507E-04  5.74425876834E-04  5.82524396472E-04  5.90737092756E-04
  5.99065575402E-04  6.07511476818E-04  6.16076452428E-04  6.24762180996E-04
  6.33570364951E-04  6.42502730726E-04  6.51561029093E-04  6.60747035508E-04
  6.70062550456E-04  6.79509399810E-04  6.89089435182E-04  6.98804534289E-04
  7.08656601321E-04  7.18647567317E-04  7.28779390536E-04  7.39054056848E-04
  7.49473580122E-04  7.60040002617E-04  7.70755395385E-04  7.81621858679E-04
  7.92641522359E-04  8.03816546315E-04  8.15149120887E-04  8.26641467297E-04
  8.38295838080E-04  8.50114517532E-04  8.62099822150E-04  8.74254101094E-04
  8.86579736640E-04  8.99079144652E-04  9.11754775056E-04  9.24609112314E-04
  9.37644675918E-04  9.50864020880E-04  9.64269738235E-04  9.77864455545E-04
  9.91650837419E-04  1.00563158603E-03  1.01980944165E-03  1.03418718319E-03
  1.04876762873E-03  1.06355363608E-03  1.07854810335E-03  1.09375396949E-03
  1.10917421492E-03  1.12481186205E-03  1.14066997590E-03  1.15675166472E-03
  1.17306008056E-03  1.18959841994E-03  1.20636992442E-03  1.22337788126E-03
  1.24062562409E-03  1.25811653351E-03  1.27585403779E-03  1.29384161356E-03
  1.31208278642E-03  1.33058113171E-03  1.34934027516E-03  1.36836389362E-03
  1.38765571579E-03  1.40721952292E-03  1.42705914958E-03  1.44717848440E-03
  1.46758147084E-03  1.48827210795E-03  1.50925445115E-03  1.53053261306E-03
  1.55211076426E-03  1.57399313413E-03  1.59618401170E-03  1.61868774645E-03
  1.64150874918E-03  1.66465149288E-03  1.68812051360E-03  1.71192041134E-03
  1.73605585096E-03  1.76053156309E-03  1.78535234505E-03  1.81052306177E-03
  1.83604864682E-03  1.86193410327E-03  1.88818450478E-03  1.91480499648E-03
  1.94180079610E-03  1.96917719489E-03  1.99693955872E-03  2.02509332909E-03
  2.05364402424E-03  2.08259724019E-03  2.11195865186E-03  2.14173401419E-03
  2.17192916325E-03  2.20255001738E-03  2.23360257836E-03  2.26509293259E-03
  2.29702725229E-03  2.32941179669E-03  2.36225291326E-03  2.39555703896E-03
  2.42933070151E-03  2.46358052065E-03  2.49831320946E-03  2.53353557566E-03
  2.56925452294E-03  2.60547705234E-03  2.64221026358E-03  2.67946135648E-03
  2.71723763239E-03  2.75554649558E-03  2.79439545470E-03  2.83379212428E-03
  2.87374422618E-03  2.91425959116E-03  2.95534616034E-03  2.99701198683E-03
  3.03926523726E-03  3.08211419341E-03  3.12556725381E-03  3.16963293540E-03
  3.21431987519E-03  3.25963683197E-03  3.30559268800E-03  3.35219645077E-03
  3.39945725479E-03  3.44738436331E-03  3.49598717020E-03  3.54527520177E-03
  3.59525811863E-03  3.64594571759E-03  3.69734793358E-03  3.74947484160E-03
  3.80233665869E-03  3.85594374595E-03  3.91030661052E-03  3.96543590770E-03
  4.02134244302E-03  4.07803717433E-03  4.13553121399E-03  4.19383583099E-03
  4.25296245325E-03  4.31292266977E-03  4.37372823293E-03  4.43539106083E-03
  4.49792323958E-03  4.56133702568E-03  4.62564484844E-03  4.69085931240E-03
  4.75699319980E-03  4.82405947310E-03  4.89207127750E-03  4.96104194353E-03
  5.03098498966E-03  5.10191412496E-03  5.17384325176E-03  5.24678646840E-03
  5.32075807198E-03  5.39577256118E-03  5.47184463908E-03  5.54898921604E-03
  5.62722141265E-03  5.70655656267E-03  5.78701021605E-03  5.86859814196E-03
  5.95133633189E-03  6.03524100280E-03  6.12032860026E-03  6.20661580172E-03
  6.29411951975E-03  6.38285690535E-03  6.47284535134E-03  6.56410249574E-03
  6.65664622525E-03  6.75049467872E-03  6.84566625076E-03  6.94217959531E-03
  7.04005362927E-03  7.13930753629E-03  7.23996077044E-03  7.34203306008E-03
  7.44554441170E-03  7.55051511386E-03  7.65696574116E-03  7.76491715826E-03
  7.87439052397E-03  7.98540729544E-03  8.09798923230E-03  8.21215840098E-03
  8.32793717899E-03  8.44534825935E-03  8.56441465501E-03  8.68515970335E-03
  8.80760707081E-03  8.93178075744E-03  9.05770510170E-03  9.18540478515E-03
  9.31490483735E-03  9.44623064071E-03  9.57940793552E-03  9.71446282496E-03
  9.85142178020E-03  9.99031164566E-03  1.01311596442E-02  1.02739933824E-02
  1.04188408563E-02  1.05657304563E-02  1.07146909732E-02  1.08657516040E-02
  1.10189419568E-02  1.11742920575E-02  1.13318323553E-02  1.14915937284E-02
  1.16536074907E-02  1.18179053974E-02  1.19845196514E-02  1.21534829096E-02
  1.23248282894E-02  1.24985893749E-02  1.26748002240E-02  1.28534953745E-02